LAMMPS (22 Sep 2017)
KOKKOS mode is enabled (../kokkos.cpp:40)
  using 1 GPU(s)
  using 1 OpenMP thread(s) per MPI task
package kokkos
package kokkos comm device binsize 4.2 newton on neigh half
# bulk Si via Tersoff

variable        N index on      # Newton Setting
variable        w index 10      # Warmup Timesteps
variable        t index 2420	# Main Run Timesteps
variable        m index 1       # Main Run Timestep Multiplier
variable        n index 0       # Use NUMA Mapping for Multi-Node
variable        p index 0       # Use Power Measurement

variable        x index 2
variable        y index 2
variable        z index 4

variable        xx equal 20*$x
variable        xx equal 20*2
variable        yy equal 20*$y
variable        yy equal 20*2
variable        zz equal 10*$z
variable        zz equal 10*4
variable        rr equal floor($t*$m)
variable        rr equal floor(2420*$m)
variable        rr equal floor(2420*0.2)
variable        root getenv LMP_ROOT

newton          $N
newton          on
if "$n > 0"     then "processors * * * grid numa"

units		metal
atom_style	atomic

lattice		diamond 5.431
Lattice spacing in x,y,z = 5.431 5.431 5.431
region		box block 0 ${xx} 0 ${yy} 0 ${zz}
region		box block 0 40 0 ${yy} 0 ${zz}
region		box block 0 40 0 40 0 ${zz}
region		box block 0 40 0 40 0 40
create_box	1 box
Created orthogonal box = (0 0 0) to (217.24 217.24 217.24)
  1 by 1 by 1 MPI processor grid
create_atoms	1 box
Created 512000 atoms

pair_style	tersoff
pair_coeff	* * ${root}/bench/POTENTIALS/Si.tersoff Si
pair_coeff	* * /ascldap/users/stamoor/lammps_master/bench/POTENTIALS/Si.tersoff Si
mass            1 28.06

velocity	all create 1000.0 376847 loop geom

neighbor	1.0 bin
neigh_modify    delay 5 every 1

fix		1 all nve
thermo		1000
timestep	0.001

if "$p > 0"     then "run_style verlet/power"

if "$w > 0"     then "run $w"
run $w
run 10
Neighbor list info ...
  update every 1 steps, delay 5 steps, check yes
  max neighbors/atom: 2000, page size: 100000
  master list distance cutoff = 4.2
  ghost atom cutoff = 4.2
  binsize = 4.2, bins = 52 52 52
  1 neighbor lists, perpetual/occasional/extra = 1 0 0
  (1) pair tersoff/kk, perpetual
      attributes: full, newton on, kokkos_device
      pair build: full/bin/kk/device
      stencil: full/bin/3d
      bin: kk/device
Per MPI rank memory allocation (min/avg/max) = 95.59 | 95.59 | 95.59 Mbytes
Step Temp E_pair E_mol TotEng Press 
       0         1000     -2370771            0   -2304589.9    7019.6454 
      10    619.85443   -2345556.2            0   -2304533.6    12469.478 
Loop time of 0.065068 on 1 procs for 10 steps with 512000 atoms

Performance: 13.278 ns/day, 1.807 hours/ns, 153.685 timesteps/s
51.6% CPU use with 1 MPI tasks x 1 OpenMP threads

MPI task timing breakdown:
Section |  min time  |  avg time  |  max time  |%varavg| %total
---------------------------------------------------------------
Pair    | 0.0085049  | 0.0085049  | 0.0085049  |   0.0 | 13.07
Neigh   | 0          | 0          | 0          |   0.0 |  0.00
Comm    | 0.04723    | 0.04723    | 0.04723    |   0.0 | 72.59
Output  | 0.00024796 | 0.00024796 | 0.00024796 |   0.0 |  0.38
Modify  | 0.0026515  | 0.0026515  | 0.0026515  |   0.0 |  4.07
Other   |            | 0.006434   |            |       |  9.89

Nlocal:    512000 ave 512000 max 512000 min
Histogram: 1 0 0 0 0 0 0 0 0 0
Nghost:    70245 ave 70245 max 70245 min
Histogram: 1 0 0 0 0 0 0 0 0 0
Neighs:    0 ave 0 max 0 min
Histogram: 1 0 0 0 0 0 0 0 0 0
FullNghs:  8.192e+06 ave 8.192e+06 max 8.192e+06 min
Histogram: 1 0 0 0 0 0 0 0 0 0

Total # of neighbors = 8192000
Ave neighs/atom = 16
Neighbor list builds = 0
Dangerous builds = 0
run             ${rr}
run             484
Per MPI rank memory allocation (min/avg/max) = 95.9 | 95.9 | 95.9 Mbytes
Step Temp E_pair E_mol TotEng Press 
      10    619.85443   -2345556.2            0   -2304533.6    12469.478 
     494    480.16306   -2336320.9            0   -2304543.2   -3567.8007 
Loop time of 3.18662 on 1 procs for 484 steps with 512000 atoms

Performance: 13.123 ns/day, 1.829 hours/ns, 151.885 timesteps/s
88.1% CPU use with 1 MPI tasks x 1 OpenMP threads

MPI task timing breakdown:
Section |  min time  |  avg time  |  max time  |%varavg| %total
---------------------------------------------------------------
Pair    | 0.29683    | 0.29683    | 0.29683    |   0.0 |  9.31
Neigh   | 0.15624    | 0.15624    | 0.15624    |   0.0 |  4.90
Comm    | 2.3856     | 2.3856     | 2.3856     |   0.0 | 74.86
Output  | 0.00023913 | 0.00023913 | 0.00023913 |   0.0 |  0.01
Modify  | 0.13601    | 0.13601    | 0.13601    |   0.0 |  4.27
Other   |            | 0.2117     |            |       |  6.64

Nlocal:    512000 ave 512000 max 512000 min
Histogram: 1 0 0 0 0 0 0 0 0 0
Nghost:    65463 ave 65463 max 65463 min
Histogram: 1 0 0 0 0 0 0 0 0 0
Neighs:    0 ave 0 max 0 min
Histogram: 1 0 0 0 0 0 0 0 0 0
FullNghs:  8.45816e+06 ave 8.45816e+06 max 8.45816e+06 min
Histogram: 1 0 0 0 0 0 0 0 0 0

Total # of neighbors = 8458160
Ave neighs/atom = 16.5198
Neighbor list builds = 16
Dangerous builds = 0
Total wall time: 0:00:04
